  -12.00000        0.0000000E+00
  -11.95000        0.0000000E+00
  -11.90000        0.0000000E+00
  -11.85000        0.0000000E+00
  -11.80000        0.0000000E+00
  -11.75000        0.0000000E+00
  -11.70000        0.0000000E+00
  -11.65000        0.0000000E+00
  -11.60000        0.0000000E+00
  -11.55000        0.0000000E+00
  -11.50000        0.0000000E+00
  -11.45000        0.0000000E+00
  -11.40000        0.0000000E+00
  -11.35000        0.0000000E+00
  -11.30000        0.0000000E+00
  -11.25000        0.0000000E+00
  -11.20000        0.0000000E+00
  -11.15000        0.0000000E+00
  -11.10000        0.0000000E+00
  -11.05000        0.0000000E+00
  -11.00000        0.0000000E+00
  -10.95000        0.0000000E+00
  -10.90000        0.0000000E+00
  -10.85000        0.0000000E+00
  -10.80000        0.0000000E+00
  -10.75000        0.0000000E+00
  -10.70000        0.0000000E+00
  -10.65000        0.0000000E+00
  -10.60000        0.0000000E+00
  -10.55000        0.0000000E+00
  -10.50000        0.0000000E+00
  -10.45000        0.0000000E+00
  -10.40000        0.0000000E+00
  -10.35000        0.0000000E+00
  -10.30000        0.0000000E+00
  -10.25000        0.0000000E+00
  -10.20000        0.0000000E+00
  -10.15000        0.0000000E+00
  -10.10000        0.0000000E+00
  -10.05000        0.0000000E+00
  -10.00000        0.0000000E+00
  -9.950000        0.0000000E+00
  -9.900000        0.0000000E+00
  -9.850000        0.0000000E+00
  -9.800000        0.0000000E+00
  -9.750000        0.0000000E+00
  -9.700000        0.0000000E+00
  -9.650000        0.0000000E+00
  -9.600000        0.0000000E+00
  -9.550000        0.0000000E+00
  -9.500000        0.0000000E+00
  -9.450000        0.0000000E+00
  -9.400000        0.0000000E+00
  -9.350000        0.0000000E+00
  -9.300000        0.0000000E+00
  -9.250000        0.0000000E+00
  -9.200000        0.0000000E+00
  -9.150000        0.0000000E+00
  -9.100000        0.0000000E+00
  -9.050000        0.0000000E+00
  -9.000000        0.0000000E+00
  -8.950000        0.0000000E+00
  -8.900000        0.0000000E+00
  -8.850000        0.0000000E+00
  -8.800000        0.0000000E+00
  -8.750000        0.0000000E+00
  -8.700000        0.0000000E+00
  -8.650000        0.0000000E+00
  -8.600000        0.0000000E+00
  -8.550000        0.0000000E+00
  -8.500000        0.0000000E+00
  -8.450000        0.0000000E+00
  -8.400000        0.0000000E+00
  -8.350000        0.0000000E+00
  -8.300000        0.0000000E+00
  -8.250000        0.0000000E+00
  -8.200000        0.0000000E+00
  -8.150000        0.0000000E+00
  -8.100000        0.0000000E+00
  -8.050000        0.0000000E+00
  -8.000000        0.0000000E+00
  -7.950000        0.0000000E+00
  -7.900000        0.0000000E+00
  -7.850000        0.0000000E+00
  -7.800000        0.0000000E+00
  -7.750000        0.0000000E+00
  -7.700000        0.0000000E+00
  -7.650000        0.0000000E+00
  -7.600000        0.0000000E+00
  -7.550000        0.0000000E+00
  -7.500000        0.0000000E+00
  -7.450000        0.0000000E+00
  -7.400000        0.0000000E+00
  -7.350000        0.0000000E+00
  -7.300000        0.0000000E+00
  -7.250000        0.0000000E+00
  -7.200000        0.0000000E+00
  -7.150000        0.0000000E+00
  -7.100000        0.0000000E+00
  -7.050000        0.0000000E+00
  -7.000000        0.0000000E+00
  -6.950000        0.0000000E+00
  -6.900000        0.0000000E+00
  -6.850000        0.0000000E+00
  -6.800000        0.0000000E+00
  -6.750000        0.0000000E+00
  -6.700000        0.0000000E+00
  -6.650000        0.0000000E+00
  -6.600000        0.0000000E+00
  -6.550000        0.0000000E+00
  -6.500000        0.0000000E+00
  -6.450000        0.0000000E+00
  -6.400000        0.0000000E+00
  -6.350000        0.0000000E+00
  -6.300000        0.0000000E+00
  -6.250000        0.0000000E+00
  -6.200000        0.0000000E+00
  -6.150000        0.0000000E+00
  -6.100000        0.0000000E+00
  -6.050000        0.0000000E+00
  -6.000000        0.0000000E+00
  -5.950000        0.0000000E+00
  -5.900000        0.0000000E+00
  -5.850000        0.0000000E+00
  -5.800000        0.0000000E+00
  -5.750000        0.0000000E+00
  -5.700000        0.0000000E+00
  -5.650000        0.0000000E+00
  -5.600000        0.0000000E+00
  -5.550000        0.0000000E+00
  -5.500000        0.0000000E+00
  -5.450000        0.0000000E+00
  -5.400000        0.0000000E+00
  -5.350000        0.0000000E+00
  -5.300000        0.0000000E+00
  -5.250000        0.0000000E+00
  -5.200000        0.0000000E+00
  -5.150000        0.0000000E+00
  -5.100000        0.0000000E+00
  -5.050000        0.0000000E+00
  -5.000000        0.0000000E+00
  -4.950000        0.0000000E+00
  -4.900000        0.0000000E+00
  -4.850000        0.0000000E+00
  -4.800000        0.0000000E+00
  -4.750000        0.0000000E+00
  -4.700000        0.0000000E+00
  -4.650000        0.0000000E+00
  -4.600000        0.0000000E+00
  -4.550000        0.0000000E+00
  -4.500000        0.0000000E+00
  -4.450000        0.0000000E+00
  -4.400000        0.0000000E+00
  -4.350000        0.0000000E+00
  -4.300000        0.0000000E+00
  -4.250000        0.0000000E+00
  -4.200000        0.0000000E+00
  -4.150000        0.0000000E+00
  -4.100000        0.0000000E+00
  -4.050000        0.0000000E+00
  -4.000000        0.0000000E+00
  -3.950000        0.0000000E+00
  -3.900000        0.0000000E+00
  -3.850000        0.0000000E+00
  -3.800000        0.0000000E+00
  -3.750000        0.0000000E+00
  -3.700000        0.0000000E+00
  -3.650000        0.0000000E+00
  -3.600000        0.0000000E+00
  -3.550000        0.0000000E+00
  -3.500000        0.0000000E+00
  -3.450000        0.0000000E+00
  -3.400000        0.0000000E+00
  -3.350000        0.0000000E+00
  -3.300000        0.0000000E+00
  -3.250000        0.0000000E+00
  -3.200000        0.0000000E+00
  -3.150000        0.0000000E+00
  -3.100000        0.0000000E+00
  -3.050000        0.0000000E+00
  -3.000000        0.0000000E+00
  -2.950000        0.0000000E+00
  -2.900000        0.0000000E+00
  -2.850000        0.0000000E+00
  -2.800000        0.0000000E+00
  -2.750000        0.0000000E+00
  -2.700000        0.0000000E+00
  -2.650000        0.0000000E+00
  -2.600000        0.0000000E+00
  -2.550000        0.0000000E+00
  -2.500000        0.0000000E+00
  -2.450000        0.0000000E+00
  -2.400000        0.0000000E+00
  -2.350000        0.0000000E+00
  -2.300000        0.0000000E+00
  -2.250000        0.0000000E+00
  -2.200000        0.0000000E+00
  -2.150000        0.0000000E+00
  -2.100000        0.0000000E+00
  -2.050000        0.0000000E+00
  -2.000000        0.0000000E+00
  -1.950000        0.0000000E+00
  -1.900000        0.0000000E+00
  -1.850000        0.0000000E+00
  -1.800000        0.0000000E+00
  -1.750000        0.0000000E+00
  -1.700000        0.0000000E+00
  -1.650000        0.0000000E+00
  -1.600000        0.0000000E+00
  -1.550000        0.0000000E+00
  -1.500000        0.0000000E+00
  -1.450000        0.0000000E+00
  -1.400000        0.0000000E+00
  -1.350000        0.0000000E+00
  -1.300000        0.0000000E+00
  -1.250000        0.0000000E+00
  -1.200000        0.0000000E+00
  -1.150000        0.0000000E+00
  -1.100000        0.0000000E+00
  -1.050000        0.0000000E+00
  -1.000000        0.0000000E+00
 -0.9500000        0.0000000E+00
 -0.9000000        0.0000000E+00
 -0.8500000        0.0000000E+00
 -0.8000000        0.0000000E+00
 -0.7500000        0.0000000E+00
 -0.7000000        0.0000000E+00
 -0.6500000        0.0000000E+00
 -0.6000000        0.0000000E+00
 -0.5500000        0.0000000E+00
 -0.5000000        0.0000000E+00
 -0.4500000        0.0000000E+00
 -0.4000000        0.0000000E+00
 -0.3500000        0.0000000E+00
 -0.3000000        0.0000000E+00
 -0.2500000        0.0000000E+00
 -0.2000000        0.0000000E+00
 -0.1500000        0.0000000E+00
 -0.1000000        0.0000000E+00
 -5.0000001E-02    0.0000000E+00
  0.0000000E+00    0.0000000E+00
  5.0000001E-02    0.0000000E+00
  0.1000000        0.0000000E+00
  0.1500000        0.0000000E+00
  0.2000000        0.0000000E+00
  0.2500000        0.0000000E+00
  0.3000000        0.0000000E+00
  0.3500000        0.0000000E+00
  0.4000000        0.0000000E+00
  0.4500000        0.0000000E+00
  0.5000000        0.0000000E+00
  0.5500000        0.0000000E+00
  0.6000000        0.0000000E+00
  0.6500000        0.0000000E+00
  0.7000000        0.0000000E+00
  0.7500000        0.0000000E+00
  0.8000000        0.0000000E+00
  0.8500000        0.0000000E+00
  0.9000000        0.0000000E+00
  0.9500000        0.0000000E+00
   1.000000        0.0000000E+00
   1.050000        0.0000000E+00
   1.100000        0.0000000E+00
   1.150000        0.0000000E+00
   1.200000        0.0000000E+00
   1.250000        0.0000000E+00
   1.300000        0.0000000E+00
   1.350000        0.0000000E+00
   1.400000        0.0000000E+00
   1.450000        0.0000000E+00
   1.500000        0.0000000E+00
   1.550000        0.0000000E+00
   1.600000        0.0000000E+00
   1.650000        0.0000000E+00
   1.700000        0.0000000E+00
   1.750000        0.0000000E+00
   1.800000        0.0000000E+00
   1.850000        0.0000000E+00
   1.900000        0.0000000E+00
   1.950000        0.0000000E+00
   2.000000        0.0000000E+00
   2.050000        0.0000000E+00
   2.100000        0.0000000E+00
   2.150000        0.0000000E+00
   2.200000        0.0000000E+00
   2.250000        0.0000000E+00
   2.300000        0.0000000E+00
   2.350000        0.0000000E+00
   2.400000        0.0000000E+00
   2.450000        0.0000000E+00
   2.500000        0.0000000E+00
   2.550000        0.0000000E+00
   2.600000        0.0000000E+00
   2.650000        0.0000000E+00
   2.700000        0.0000000E+00
   2.750000        0.0000000E+00
   2.800000        0.0000000E+00
   2.850000        0.0000000E+00
   2.900000        0.0000000E+00
   2.950000        0.0000000E+00
   3.000000        0.0000000E+00
   3.050000        0.0000000E+00
   3.100000        0.0000000E+00
   3.150000        0.0000000E+00
   3.200000        0.0000000E+00
   3.250000        0.0000000E+00
   3.300000        0.0000000E+00
   3.350000        0.0000000E+00
   3.400000        0.0000000E+00
   3.450000        0.0000000E+00
   3.500000        0.0000000E+00
   3.550000        0.0000000E+00
   3.600000        0.0000000E+00
   3.650000        0.0000000E+00
   3.700000        0.0000000E+00
   3.750000        0.0000000E+00
   3.800000        0.0000000E+00
   3.850000        0.0000000E+00
   3.900000        0.0000000E+00
   3.950000        0.0000000E+00
   4.000000        0.0000000E+00
   4.050000        0.0000000E+00
   4.100000        0.0000000E+00
   4.150000        0.0000000E+00
   4.200000        0.0000000E+00
   4.250000        0.0000000E+00
   4.300000        0.0000000E+00
   4.350000        0.0000000E+00
   4.400000        0.0000000E+00
   4.450000        0.0000000E+00
   4.500000        0.0000000E+00
   4.550000        0.0000000E+00
   4.600000        0.0000000E+00
   4.650000        0.0000000E+00
   4.700000        0.0000000E+00
   4.750000        0.0000000E+00
   4.800000        0.0000000E+00
   4.850000        0.0000000E+00
   4.900000        0.0000000E+00
   4.950000        0.0000000E+00
   5.000000        0.0000000E+00
   5.050000        0.0000000E+00
   5.100000        0.0000000E+00
   5.150000        0.0000000E+00
   5.200000        0.0000000E+00
   5.250000        0.0000000E+00
   5.300000        0.0000000E+00
   5.350000        0.0000000E+00
   5.400000        0.0000000E+00
   5.450000        0.0000000E+00
   5.500000        0.0000000E+00
   5.550000        0.0000000E+00
   5.600000        0.0000000E+00
   5.650000        0.0000000E+00
   5.700000        0.0000000E+00
   5.750000        0.0000000E+00
   5.800000        0.0000000E+00
   5.850000        0.0000000E+00
   5.900000        0.0000000E+00
   5.950000        0.0000000E+00
   6.000000        0.0000000E+00
   6.050000        0.0000000E+00
   6.100000        0.0000000E+00
   6.150000        0.0000000E+00
   6.200000        0.0000000E+00
   6.250000        0.0000000E+00
   6.300000        0.0000000E+00
   6.350000        0.0000000E+00
   6.400000        0.0000000E+00
   6.450000        0.0000000E+00
   6.500000        0.0000000E+00
   6.550000        0.0000000E+00
   6.600000        0.0000000E+00
   6.650000        0.0000000E+00
   6.700000        0.0000000E+00
   6.750000        0.0000000E+00
   6.800000        0.0000000E+00
   6.850000        0.0000000E+00
   6.900000        0.0000000E+00
   6.950000        0.0000000E+00
   7.000000        0.0000000E+00
   7.050000        0.0000000E+00
   7.100000        0.0000000E+00
   7.150000        0.0000000E+00
   7.200000        0.0000000E+00
   7.250000        0.0000000E+00
   7.300000        0.0000000E+00
   7.350000        0.0000000E+00
   7.400000        0.0000000E+00
   7.450000        0.0000000E+00
   7.500000        0.0000000E+00
   7.550000        0.0000000E+00
   7.600000        0.0000000E+00
   7.650000        0.0000000E+00
   7.700000        0.0000000E+00
   7.750000        0.0000000E+00
   7.800000        0.0000000E+00
   7.850000        0.0000000E+00
   7.900000        0.0000000E+00
   7.950000        0.0000000E+00
   8.000000        0.0000000E+00
   8.050000        0.0000000E+00
   8.100000        0.0000000E+00
   8.150000        0.0000000E+00
   8.200000        0.0000000E+00
   8.250000        0.0000000E+00
   8.300000        0.0000000E+00
   8.350000        0.0000000E+00
   8.400000        0.0000000E+00
   8.450000        0.0000000E+00
   8.500000        0.0000000E+00
   8.550000        0.0000000E+00
   8.600000        0.0000000E+00
   8.650000        0.0000000E+00
   8.700000        0.0000000E+00
   8.750000        0.0000000E+00
   8.800000        0.0000000E+00
   8.850000        0.0000000E+00
   8.900000        0.0000000E+00
   8.950000        0.0000000E+00
   9.000000        0.0000000E+00
   9.050000        0.0000000E+00
   9.100000        0.0000000E+00
   9.150000        0.0000000E+00
   9.200000        0.0000000E+00
   9.250000        0.0000000E+00
   9.300000        0.0000000E+00
   9.350000        0.0000000E+00
   9.400000        0.0000000E+00
   9.450000        0.0000000E+00
   9.500000        0.0000000E+00
   9.550000        0.0000000E+00
   9.600000        0.0000000E+00
   9.650000        0.0000000E+00
   9.700000        0.0000000E+00
   9.750000        0.0000000E+00
   9.800000        0.0000000E+00
   9.850000        0.0000000E+00
   9.900000        0.0000000E+00
   9.950000        0.0000000E+00
   10.00000        0.0000000E+00
   10.05000        0.0000000E+00
   10.10000        0.0000000E+00
   10.15000        0.0000000E+00
   10.20000        0.0000000E+00
   10.25000        0.0000000E+00
   10.30000        0.0000000E+00
   10.35000        0.0000000E+00
   10.40000        0.0000000E+00
   10.45000        0.0000000E+00
   10.50000        0.0000000E+00
   10.55000        0.0000000E+00
   10.60000        0.0000000E+00
   10.65000        0.0000000E+00
   10.70000        0.0000000E+00
   10.75000        0.0000000E+00
   10.80000        0.0000000E+00
   10.85000        0.0000000E+00
   10.90000        0.0000000E+00
   10.95000        0.0000000E+00
   11.00000        0.0000000E+00
   11.05000        0.0000000E+00
   11.10000        0.0000000E+00
   11.15000        0.0000000E+00
   11.20000        0.0000000E+00
   11.25000        0.0000000E+00
   11.30000        0.0000000E+00
   11.35000        0.0000000E+00
   11.40000        0.0000000E+00
   11.45000        0.0000000E+00
   11.50000        0.0000000E+00
   11.55000        0.0000000E+00
   11.60000        0.0000000E+00
   11.65000        0.0000000E+00
   11.70000        0.0000000E+00
   11.75000        0.0000000E+00
   11.80000        0.0000000E+00
   11.85000        0.0000000E+00
   11.90000        0.0000000E+00
   11.95000        0.0000000E+00
   12.00000        0.0000000E+00
   12.05000        0.0000000E+00
   12.10000        0.0000000E+00
   12.15000        0.0000000E+00
   12.20000        0.0000000E+00
   12.25000        0.0000000E+00
   12.30000        0.0000000E+00
   12.35000        0.0000000E+00
   12.40000        0.0000000E+00
   12.45000        0.0000000E+00
   12.50000        0.0000000E+00
   12.55000        0.0000000E+00
   12.60000        0.0000000E+00
   12.65000        0.0000000E+00
   12.70000        0.0000000E+00
   12.75000        0.0000000E+00
   12.80000        0.0000000E+00
   12.85000        0.0000000E+00
   12.90000        0.0000000E+00
   12.95000        0.0000000E+00
   13.00000        0.0000000E+00
   13.05000        0.0000000E+00
   13.10000        0.0000000E+00
   13.15000        0.0000000E+00
   13.20000        0.0000000E+00
   13.25000        0.0000000E+00
   13.30000        0.0000000E+00
   13.35000        0.0000000E+00
   13.40000        0.0000000E+00
   13.45000        0.0000000E+00
   13.50000        0.0000000E+00
   13.55000        0.0000000E+00
   13.60000        0.0000000E+00
   13.65000        0.0000000E+00
   13.70000        0.0000000E+00
   13.75000        0.0000000E+00
   13.80000        0.0000000E+00
   13.85000        0.0000000E+00
   13.90000        0.0000000E+00
   13.95000        0.0000000E+00
   14.00000        0.0000000E+00
   14.05000        0.0000000E+00
   14.10000        0.0000000E+00
   14.15000        0.0000000E+00
   14.20000        0.0000000E+00
   14.25000        0.0000000E+00
   14.30000        0.0000000E+00
   14.35000        0.0000000E+00
   14.40000        0.0000000E+00
   14.45000        0.0000000E+00
   14.50000        0.0000000E+00
   14.55000        0.0000000E+00
   14.60000        0.0000000E+00
   14.65000        0.0000000E+00
   14.70000        0.0000000E+00
   14.75000        0.0000000E+00
   14.80000        0.0000000E+00
   14.85000        0.0000000E+00
   14.90000        0.0000000E+00
   14.95000        0.0000000E+00
   15.00000        0.0000000E+00
   15.05000        0.0000000E+00
   15.10000        0.0000000E+00
   15.15000        0.0000000E+00
   15.20000        0.0000000E+00
   15.25000        0.0000000E+00
   15.30000        0.0000000E+00
   15.35000        0.0000000E+00
   15.40000        0.0000000E+00
   15.45000        0.0000000E+00
   15.50000        0.0000000E+00
   15.55000        0.0000000E+00
   15.60000        0.0000000E+00
   15.65000        0.0000000E+00
   15.70000        0.0000000E+00
   15.75000        0.0000000E+00
   15.80000        0.0000000E+00
   15.85000        0.0000000E+00
   15.90000        0.0000000E+00
   15.95000        0.0000000E+00
   16.00000        0.0000000E+00
   16.05000        0.0000000E+00
   16.10000        0.0000000E+00
   16.15000        0.0000000E+00
   16.20000        0.0000000E+00
   16.25000        0.0000000E+00
   16.30000        0.0000000E+00
   16.35000        0.0000000E+00
   16.40000        0.0000000E+00
   16.45000        0.0000000E+00
   16.50000        0.0000000E+00
   16.55000        0.0000000E+00
   16.60000        0.0000000E+00
   16.65000        0.0000000E+00
   16.70000        0.0000000E+00
   16.75000        0.0000000E+00
   16.80000        0.0000000E+00
   16.85000        0.0000000E+00
   16.90000        0.0000000E+00
   16.95000        0.0000000E+00
   17.00000        0.0000000E+00
   17.05000        0.0000000E+00
   17.10000        0.0000000E+00
   17.15000        0.0000000E+00
   17.20000        0.0000000E+00
   17.25000        0.0000000E+00
   17.30000        0.0000000E+00
   17.35000        0.0000000E+00
   17.40000        0.0000000E+00
   17.45000        0.0000000E+00
   17.50000        0.0000000E+00
   17.55000        0.0000000E+00
   17.60000        0.0000000E+00
   17.65000        0.0000000E+00
   17.70000        0.0000000E+00
   17.75000        0.0000000E+00
   17.80000        0.0000000E+00
   17.85000        0.0000000E+00
   17.90000        0.0000000E+00
   17.95000        0.0000000E+00
   18.00000        0.0000000E+00
   18.05000        0.0000000E+00
   18.10000        0.0000000E+00
   18.15000        0.0000000E+00
   18.20000        0.0000000E+00
   18.25000        0.0000000E+00
   18.30000        0.0000000E+00
   18.35000        0.0000000E+00
   18.40000        0.0000000E+00
   18.45000        0.0000000E+00
   18.50000        0.0000000E+00
   18.55000        0.0000000E+00
   18.60000        0.0000000E+00
   18.65000        0.0000000E+00
   18.70000        0.0000000E+00
   18.75000        0.0000000E+00
   18.80000        0.0000000E+00
   18.85000        0.0000000E+00
   18.90000        0.0000000E+00
   18.95000        0.0000000E+00
   19.00000        0.0000000E+00
   19.05000        0.0000000E+00
   19.10000        0.0000000E+00
   19.15000        0.0000000E+00
   19.20000        0.0000000E+00
   19.25000        0.0000000E+00
   19.30000        0.0000000E+00
   19.35000        0.0000000E+00
   19.40000        0.0000000E+00
   19.45000        0.0000000E+00
   19.50000        0.0000000E+00
   19.55000        0.0000000E+00
   19.60000        0.0000000E+00
   19.65000        0.0000000E+00
   19.70000        0.0000000E+00
   19.75000        0.0000000E+00
   19.80000        0.0000000E+00
   19.85000        0.0000000E+00
   19.90000        0.0000000E+00
   19.95000        0.0000000E+00
   20.00000        0.0000000E+00
   20.05000        0.0000000E+00
   20.10000        0.0000000E+00
   20.15000        0.0000000E+00
   20.20000        0.0000000E+00
   20.25000        0.0000000E+00
   20.30000        0.0000000E+00
   20.35000        0.0000000E+00
   20.40000        0.0000000E+00
   20.45000        0.0000000E+00
   20.50000        0.0000000E+00
   20.55000        0.0000000E+00
   20.60000        0.0000000E+00
   20.65000        0.0000000E+00
   20.70000        0.0000000E+00
   20.75000        0.0000000E+00
   20.80000        0.0000000E+00
   20.85000        0.0000000E+00
   20.90000        0.0000000E+00
   20.95000        0.0000000E+00
   21.00000        0.0000000E+00
   21.05000        0.0000000E+00
   21.10000        0.0000000E+00
   21.15000        0.0000000E+00
   21.20000        0.0000000E+00
   21.25000        0.0000000E+00
   21.30000        0.0000000E+00
   21.35000        0.0000000E+00
   21.40000        0.0000000E+00
   21.45000        0.0000000E+00
   21.50000        0.0000000E+00
   21.55000        0.0000000E+00
   21.60000        0.0000000E+00
   21.65000        0.0000000E+00
   21.70000        0.0000000E+00
   21.75000        0.0000000E+00
   21.80000        0.0000000E+00
   21.85000        0.0000000E+00
   21.90000        0.0000000E+00
   21.95000        0.0000000E+00
   22.00000        0.0000000E+00
   22.05000        0.0000000E+00
   22.10000        0.0000000E+00
   22.15000        0.0000000E+00
   22.20000        0.0000000E+00
   22.25000        0.0000000E+00
   22.30000        0.0000000E+00
   22.35000        0.0000000E+00
   22.40000        0.0000000E+00
   22.45000        0.0000000E+00
   22.50000        0.0000000E+00
   22.55000        0.0000000E+00
   22.60000        0.0000000E+00
   22.65000        0.0000000E+00
   22.70000        0.0000000E+00
   22.75000        0.0000000E+00
   22.80000        0.0000000E+00
   22.85000        0.0000000E+00
   22.90000        0.0000000E+00
   22.95000        0.0000000E+00
   23.00000        0.0000000E+00
   23.05000        0.0000000E+00
   23.10000        0.0000000E+00
   23.15000        0.0000000E+00
   23.20000        0.0000000E+00
   23.25000        0.0000000E+00
   23.30000        0.0000000E+00
   23.35000        0.0000000E+00
   23.40000        0.0000000E+00
   23.45000        0.0000000E+00
   23.50000        0.0000000E+00
   23.55000        0.0000000E+00
   23.60000        0.0000000E+00
   23.65000        0.0000000E+00
   23.70000        0.0000000E+00
   23.75000        0.0000000E+00
   23.80000        0.0000000E+00
   23.85000        0.0000000E+00
   23.90000        0.0000000E+00
   23.95000        0.0000000E+00
   24.00000        0.0000000E+00
   24.05000        0.0000000E+00
   24.10000        0.0000000E+00
   24.15000        0.0000000E+00
   24.20000        0.0000000E+00
   24.25000        0.0000000E+00
   24.30000        0.0000000E+00
   24.35000        0.0000000E+00
   24.40000        0.0000000E+00
   24.45000        0.0000000E+00
   24.50000        0.0000000E+00
   24.55000        0.0000000E+00
   24.60000        0.0000000E+00
   24.65000        0.0000000E+00
   24.70000        0.0000000E+00
   24.75000        0.0000000E+00
   24.80000        0.0000000E+00
   24.85000        0.0000000E+00
   24.90000        0.0000000E+00
   24.95000        0.0000000E+00
   25.00000        0.0000000E+00
   25.05000        0.0000000E+00
   25.10000        0.0000000E+00
   25.15000        0.0000000E+00
   25.20000        0.0000000E+00
   25.25000        0.0000000E+00
   25.30000        0.0000000E+00
   25.35000        0.0000000E+00
   25.40000        0.0000000E+00
   25.45000        0.0000000E+00
   25.50000        0.0000000E+00
   25.55000        0.0000000E+00
   25.60000        0.0000000E+00
   25.65000        0.0000000E+00
   25.70000        0.0000000E+00
   25.75000        0.0000000E+00
   25.80000        0.0000000E+00
   25.85000        0.0000000E+00
   25.90000        0.0000000E+00
   25.95000        0.0000000E+00
   26.00000        0.0000000E+00
   26.05000        0.0000000E+00
   26.10000        0.0000000E+00
   26.15000        0.0000000E+00
   26.20000        0.0000000E+00
   26.25000        0.0000000E+00
   26.30000        0.0000000E+00
   26.35000        0.0000000E+00
   26.40000        0.0000000E+00
   26.45000        0.0000000E+00
   26.50000        0.0000000E+00
   26.55000        0.0000000E+00
   26.60000        0.0000000E+00
   26.65000        0.0000000E+00
   26.70000        0.0000000E+00
   26.75000        0.0000000E+00
   26.80000        0.0000000E+00
   26.85000        0.0000000E+00
   26.90000        0.0000000E+00
   26.95000        0.0000000E+00
   27.00000        0.0000000E+00
   27.05000        0.0000000E+00
   27.10000        0.0000000E+00
   27.15000        0.0000000E+00
   27.20000        0.0000000E+00
   27.25000        0.0000000E+00
   27.30000        0.0000000E+00
   27.35000        0.0000000E+00
   27.40000        0.0000000E+00
   27.45000        0.0000000E+00
   27.50000        0.0000000E+00
   27.55000        0.0000000E+00
   27.60000        0.0000000E+00
   27.65000        0.0000000E+00
   27.70000        0.0000000E+00
   27.75000        0.0000000E+00
   27.80000        0.0000000E+00
   27.85000        0.0000000E+00
   27.90000        0.0000000E+00
   27.95000        0.0000000E+00
   28.00000        0.0000000E+00
   28.05000        0.0000000E+00
   28.10000        0.0000000E+00
   28.15000        0.0000000E+00
   28.20000        0.0000000E+00
   28.25000        0.0000000E+00
   28.30000        0.0000000E+00
   28.35000        0.0000000E+00
   28.40000        0.0000000E+00
   28.45000        0.0000000E+00
   28.50000        0.0000000E+00
   28.55000        0.0000000E+00
   28.60000        0.0000000E+00
   28.65000        0.0000000E+00
   28.70000        0.0000000E+00
   28.75000        0.0000000E+00
   28.80000        0.0000000E+00
   28.85000        0.0000000E+00
   28.90000        0.0000000E+00
   28.95000        0.0000000E+00
   29.00000        0.0000000E+00
   29.05000        0.0000000E+00
   29.10000        0.0000000E+00
   29.15000        0.0000000E+00
   29.20000        0.0000000E+00
   29.25000        0.0000000E+00
   29.30000        0.0000000E+00
   29.35000        0.0000000E+00
   29.40000        0.0000000E+00
   29.45000        0.0000000E+00
   29.50000        0.0000000E+00
   29.55000        0.0000000E+00
   29.60000        0.0000000E+00
   29.65000        0.0000000E+00
   29.70000        0.0000000E+00
   29.75000        0.0000000E+00
   29.80000        0.0000000E+00
   29.85000        0.0000000E+00
   29.90000        0.0000000E+00
   29.95000        0.0000000E+00
   30.00000        0.0000000E+00
   30.05000        0.0000000E+00
   30.10000        0.0000000E+00
   30.15000        0.0000000E+00
   30.20000        0.0000000E+00
   30.25000        0.0000000E+00
   30.30000        0.0000000E+00
   30.35000        0.0000000E+00
   30.40000        0.0000000E+00
   30.45000        0.0000000E+00
   30.50000        0.0000000E+00
   30.55000        0.0000000E+00
   30.60000        0.0000000E+00
   30.65000        0.0000000E+00
   30.70000        0.0000000E+00
   30.75000        0.0000000E+00
   30.80000        0.0000000E+00
   30.85000        0.0000000E+00
   30.90000        0.0000000E+00
   30.95000        0.0000000E+00
   31.00000        0.0000000E+00
   31.05000        0.0000000E+00
   31.10000        0.0000000E+00
   31.15000        0.0000000E+00
   31.20000        0.0000000E+00
   31.25000        0.0000000E+00
   31.30000        0.0000000E+00
   31.35000        0.0000000E+00
   31.40000        0.0000000E+00
   31.45000        0.0000000E+00
   31.50000        0.0000000E+00
   31.55000        0.0000000E+00
   31.60000        0.0000000E+00
   31.65000        0.0000000E+00
   31.70000        0.0000000E+00
   31.75000        0.0000000E+00
   31.80000        0.0000000E+00
   31.85000        0.0000000E+00
   31.90000        0.0000000E+00
   31.95000        0.0000000E+00
   32.00000        0.0000000E+00
   32.05000        0.0000000E+00
   32.10000        0.0000000E+00
   32.15000        0.0000000E+00
   32.20000        0.0000000E+00
   32.25000        0.0000000E+00
   32.30000        0.0000000E+00
   32.35000        0.0000000E+00
   32.40000        0.0000000E+00
   32.45000        0.0000000E+00
   32.50000        0.0000000E+00
   32.55000        0.0000000E+00
   32.60000        0.0000000E+00
   32.65000        0.0000000E+00
   32.70000        0.0000000E+00
   32.75000        0.0000000E+00
   32.80000        0.0000000E+00
   32.85000        0.0000000E+00
   32.90000        0.0000000E+00
   32.95000        0.0000000E+00
   33.00000        0.0000000E+00
   33.05000        0.0000000E+00
   33.10000        0.0000000E+00
   33.15000        0.0000000E+00
   33.20000        0.0000000E+00
   33.25000        0.0000000E+00
   33.30000        0.0000000E+00
   33.35000        0.0000000E+00
   33.40000        0.0000000E+00